ITEM: TIMESTEP
0
ITEM: NUMBER OF ATOMS
8000
ITEM: BOX BOUNDS pp pp pp
0 15.2274
0 15.2274
-0.94838 31.4031
ITEM: ATOMS id type xs ys zs ix iy iz
6746 1 0.0140921 0.041517 0.0260482 1 0 0
7483 1 0.103223 0.229425 0.0996239 1 1 0
5891 1 0.0441703 0.0111709 0.0040345 1 1 1
4826 1 0.237477 0.315243 0.0982414 0 0 0
71 1 0.0323508 0.175214 0.0628753 0 0 0
2051 1 0.238432 0.000522737 0.0659513 0 0 0
2754 1 0.11313 0.11886 0.0289658 0 0 0
3368 1 0.0193343 0.18275 0.119787 0 0 1
5424 1 0.157987 0.258871 0.0883278 0 1 0
7484 1 0.118301 0.0284913 0.113507 1 1 0
6638 1 0.220099 0.279314 0.035455 1 0 1
87 1 0.0965266 0.16454 0.0523241 0 0 0
47 1 0.0315061 0.153921 0.0898531 0 0 0
108 1 0.0418714 0.214331 0.0907656 0 0 0
7319 1 0.0685071 0.0768397 0.0221297 1 0 1
946 1 0.225987 0.142462 0.12009 0 0 0
2846 1 0.237007 0.0163272 0.0966009 0 0 0
7478 1 0.0867423 0.18004 0.0218813 1 1 0
6082 1 0.0352989 0.281531 0.0290062 1 0 0
6735 1 0.115008 0.227022 0.0621026 1 0 0
6021 1 0.1522 0.114129 0.00306283 1 0 0
60 1 0.198881 0.116273 0.0239387 0 0 0
2784 1 0.202376 0.280963 0.0657409 0 0 0
7367 1 0.0457462 0.0977013 0.0705155 1 0 1
2798 1 0.126598 0.301114 0.0268215 0 0 0
2136 1 0.0924682 0.166355 0.0869413 0 0 0
815 1 0.0464302 0.131656 0.040282 0 0 0
3433 1 0.161453 0.0778194 0.121643 0 1 0
66 1 0.157493 0.253774 0.0449373 0 0 0
2650 1 0.205266 0.121943 0.0808678 0 0 1
149 1 0.085165 0.0516466 0.0819337 0 0 0
1385 1 0.0185794 0.179165 0.0234447 0 0 1
2004 1 0.243899 0.0478886 0.029339 0 0 0
1294 1 0.187554 0.155278 0.0503365 0 0 1
180 1 0.224022 0.0872477 0.103723 0 0 0
846 1 0.194699 0.218118 0.067279 0 0 0
3441 1 0.185011 0.0262097 0.043515 0 1 0
7442 1 0.146963 0.0805294 0.0873908 1 1 0
16 1 0.111938 0.10724 0.0646954 0 0 0
6043 1 0.0165606 0.0574246 0.0982432 1 0 0
14 1 0.228554 0.252316 0.0100187 0 0 0
6689 1 0.0403855 0.287471 0.116882 1 0 1
4139 1 0.239938 0.103788 0.0485718 0 0 0
7444 1 0.0412262 0.229377 0.0445754 1 1 0
6078 1 0.205295 0.260916 0.113206 1 0 0
120 1 0.143886 0.190615 0.0342273 0 0 0
6659 1 0.174538 0.053052 0.0160912 1 0 1
1377 1 0.157862 0.177292 0.00354894 0 0 1
6025 1 0.101294 0.290078 0.0915854 1 0 0
6215 1 0.166012 0.139384 0.105118 1 0 0
861 1 0.0679303 0.318281 0.0476762 0 0 0
2953 1 0.0505034 0.234002 0.0109266 0 0 0
2047 1 0.0866652 0.0992853 0.108666 0 0 0
2824 1 0.147241 0.161335 0.075523 0 0 0
3611 1 0.173036 0.0319155 0.0971407 0 0 0
1374 1 0.00393951 0.29565 0.0872709 0 0 1
682 1 0.188774 0.312984 0.0155582 0 0 1
193 1 0.161218 0.216688 0.113563 0 0 0
4818 1 0.0222851 0.0233132 0.0551599 0 0 0
2881 1 0.0629986 0.270293 0.0714571 0 0 0
4853 1 0.0977713 0.246916 0.0313609 0 0 0
2071 1 0.248499 0.205948 0.117477 0 0 0
1386 1 0.118732 0.0483348 0.041239 0 1 1
4080 1 0.027803 0.113029 0.111836 1 0 0
3349 1 0.167016 0.0876005 0.048417 0 1 1
7985 1 0.208619 0.181149 0.0944936 1 1 1
2707 1 0.0876136 0.161855 0.119517 0 0 0
2103 1 0.203363 0.215259 0.031065 0 0 0
3554 1 0.117678 0.281934 0.124228 0 0 0
53 1 0.121193 0.294014 0.0624969 0 0 0
3522 1 0.168125 0.309446 0.108963 0 0 0
3982 1 0.232343 0.159487 0.00320303 0 1 1
1573 1 0.15191 0.0334009 0.0700199 0 1 0
6615 1 0.210573 0.0559405 0.0714955 1 0 1
3937 1 0.110742 0.0300204 0.0116607 0 1 1
5296 1 0.15267 0.243595 0.0147321 0 0 1
2704 1 0.000381143 0.32565 0.00645439 1 0 0
1531 1 0.24746 0.164366 0.0680757 0 0 0
6764 1 0.0623897 0.0158242 0.10655 1 1 0
5986 1 0.0922363 0.00571138 0.0650106 0 1 1
2041 1 0.248467 0.233998 0.0878337 0 0 0
7363 1 0.0974249 0.272477 0.00250632 1 0 1
2759 1 0.31155 0.0590051 0.0255541 0 0 0
6821 1 0.299813 0.152143 0.00160836 1 1 0
2825 1 0.304929 0.176169 0.115222 0 0 0
4893 1 0.294718 0.279142 0.0824896 0 0 0
732 1 0.328326 0.322289 0.0672814 0 0 0
2045 1 0.272353 0.0079202 0.00277957 0 0 0
7997 1 0.305063 0.198561 0.0523449 1 1 1
4004 1 0.271944 0.269283 0.115919 0 0 0
7479 1 0.257642 0.167465 0.0326756 1 1 0
3450 1 0.288693 0.124198 0.0648789 0 1 0
6011 1 0.260925 0.110136 0.0196868 1 0 0
229 1 0.253435 0.253628 0.0569321 0 0 0
673 1 0.263707 0.0475069 0.122365 0 0 1
6179 1 0.287608 0.109439 0.121092 1 0 0
5968 1 0.322345 0.0927705 0.000915013 0 1 1
2812 1 0.269939 0.324106 0.0254332 0 0 0
1489 1 0.311275 0.280206 0.0409022 0 1 0
749 1 0.275535 0.0574903 0.0560185 0 0 0
992 1 0.314742 0.316661 0.105534 0 0 0
2055 1 0.328691 0.115906 0.0913672 0 0 0
6879 1 0.264035 0.133609 0.0955591 1 0 0
2043 1 0.281894 0.0666702 0.087512 0 0 0
13 1 0.255981 0.315633 0.0566323 0 0 0
1433 1 0.327717 0.190672 0.0227432 0 1 0
2777 1 0.3331 0.247223 0.0998405 0 0 0
2671 1 0.310906 0.123981 0.0364658 0 0 1
1938 1 0.27942 0.277482 0.000117019 0 1 1
4066 1 0.327952 0.0432112 0.120549 0 0 0
6074 1 0.307507 0.00110802 0.0758478 1 0 0
608 1 0.277333 0.231119 0.0279522 0 0 1
225 1 0.305042 0.195423 0.0834443 0 0 0
72 1 0.156425 0.172561 0.163405 0 0 0
4245 1 0.014082 0.244483 0.141678 0 0 0
828 1 0.0939362 0.17316 0.148111 0 0 0
4204 1 0.200945 0.0257861 0.12526 0 0 0
2175 1 0.0828174 0.322803 0.138982 0 0 0
779 1 0.00684801 0.00108371 0.145289 0 0 0
36 1 0.0522118 0.0430762 0.133375 0 0 0
140 1 0.111572 0.118273 0.166477 0 1 0
7383 1 0.22426 0.308979 0.130877 0 0 1
1541 1 8.0141e-05 0.0933191 0.159569 0 1 0
208 1 0.192831 0.3142 0.162187 0 0 0
2080 1 0.226636 0.0372675 0.155457 0 0 0
6022 1 0.14771 0.325611 0.138362 1 0 0
1477 1 0.0598782 0.110566 0.138539 0 1 0
2744 1 0.242033 0.244512 0.143969 0 0 0
872 1 0.147906 0.138105 0.135012 0 1 0
5498 1 0.0311139 0.298828 0.16228 1 1 0
2067 1 0.0805115 0.262103 0.15117 0 0 0
803 1 0.180495 0.263033 0.140653 0 0 0
4713 1 0.136135 0.21962 0.145264 1 0 0
6801 1 0.138373 0.272621 0.162152 1 0 0
5592 1 0.172093 0.0828198 0.161592 0 1 0
7458 1 0.210209 0.13667 0.158612 1 1 0
6663 1 0.0276615 0.172933 0.153173 1 0 1
1964 1 0.195242 0.193567 0.137296 0 1 1
122 1 0.0678667 0.219085 0.126644 0 0 0
806 1 0.110121 0.0780886 0.140372 0 0 0
994 1 0.217727 0.0898672 0.135885 0 0 0
3023 1 0.162012 0.0279605 0.146059 0 0 0
4149 1 0.0704983 0.0638202 0.161235 1 0 0
3557 1 0.191555 0.229016 0.163442 0 0 0
4034 1 0.000384272 0.317813 0.139309 1 0 0
775 1 0.247196 0.184326 0.169211 0 0 0
2912 1 0.225084 0.289347 0.210077 0 0 0
961 1 0.0586757 0.12011 0.241434 0 1 0
4878 1 0.129379 0.198914 0.215148 1 0 0
3555 1 0.000532057 0.183278 0.188915 0 1 0
117 1 0.0472356 0.085687 0.188 0 0 0
222 1 0.178016 0.225226 0.232772 0 0 0
3579 1 0.0457869 0.291005 0.194957 0 1 0
6918 1 0.0860307 0.26014 0.216881 1 0 0
7368 1 0.0412914 0.221936 0.167146 1 0 1
7547 1 0.243613 0.289381 0.247558 1 1 0
7667 1 0.113308 0.317144 0.198934 1 1 0
2942 1 0.178828 0.293909 0.235276 0 0 0
741 1 0.11008 0.259737 0.188106 0 0 0
6080 1 0.0606954 0.0152049 0.184568 1 0 0
6195 1 0.115142 0.167913 0.241035 1 0 0
1581 1 0.0141206 0.0606358 0.242226 0 1 0
6867 1 0.0913318 0.321721 0.171323 0 0 0
2917 1 0.186422 0.272952 0.186132 0 0 0
6053 1 0.00675867 0.013272 0.207363 1 0 0
213 1 0.111474 0.302115 0.234896 0 0 0
254 1 0.169552 0.0390394 0.214933 0 0 0
2880 1 0.230792 0.0165336 0.212041 0 0 0
2241 1 0.118223 0.101806 0.238839 0 0 0
3724 1 0.11229 0.234336 0.243718 0 1 0
2882 1 0.111118 0.0600359 0.187541 0 0 0
957 1 0.0806827 0.130652 0.211751 0 0 0
839 1 0.130815 0.144598 0.188442 0 1 0
1599 1 0.134334 0.0986518 0.208062 0 1 0
6124 1 0.094277 0.0032415 0.211193 1 0 0
4125 1 0.155532 0.21386 0.190015 0 0 0
2205 1 0.242978 0.316321 0.183342 0 0 0
5545 1 0.148845 0.2617 0.211648 1 1 0
956 1 0.0681134 0.211625 0.198776 0 0 0
1615 1 0.0108771 0.228375 0.217218 0 1 0
800 1 0.0426002 0.244494 0.245968 0 0 0
2151 1 0.215163 0.22951 0.203302 0 0 0
7638 1 0.053761 0.189337 0.231786 1 1 0
2848 1 0.103798 0.202421 0.174344 0 0 0
6307 1 0.00918865 0.291661 0.229875 1 0 0
1564 1 0.191402 0.0361363 0.183622 0 1 0
7395 1 0.0705061 0.0630114 0.217936 1 1 1
2866 1 0.155522 0.00101087 0.24671 0 1 0
1455 1 0.185963 0.0953716 0.193124 0 1 0
2076 1 0.172073 0.147376 0.216426 0 0 0
2231 1 0.0600994 0.147282 0.179815 0 0 0
3627 1 0.102532 0.0439731 0.244899 1 1 0
6968 1 0.184671 0.0863211 0.233282 1 1 0
6065 1 0.195174 0.164345 0.187268 1 0 0
5997 1 0.116963 0.00238123 0.174025 0 1 1
6289 1 0.217659 0.172727 0.233027 1 0 0
2877 1 0.242894 0.0836731 0.214787 0 0 0
7516 1 0.244133 0.108066 0.178621 1 1 0
273 1 0.009128 0.151622 0.215454 0 0 0
6772 1 0.0566324 0.331486 0.217298 1 0 0
2195 1 0.27787 0.302306 0.150232 0 0 0
4122 1 0.261961 0.170069 0.141989 0 0 0
3588 1 0.296604 0.0479727 0.148853 0 1 0
2984 1 0.30637 0.233721 0.138016 0 0 0
4152 1 0.270699 0.113126 0.149797 0 0 0
2249 1 0.312041 0.20569 0.17037 0 0 0
2148 1 0.318913 0.0616865 0.241278 0 0 0
4336 1 0.322159 0.158209 0.197755 0 0 0
7502 1 0.252315 0.239742 0.2281 1 1 0
2876 1 0.323484 0.279411 0.172597 0 0 0
4102 1 0.256145 0.0226165 0.183529 0 0 0
2177 1 0.300587 0.0291295 0.203486 0 0 0
5444 1 0.320277 0.114813 0.224358 0 1 0
6900 1 0.305844 0.0973111 0.193492 1 0 0
2807 1 0.265801 0.139968 0.20803 0 0 0
823 1 0.301616 0.282166 0.229027 0 0 0
3690 1 0.29045 0.18502 0.231891 0 1 0
6155 1 0.275832 0.201453 0.197662 1 0 0
6268 1 0.284084 0.272997 0.197947 1 0 0
3567 1 0.267416 0.116851 0.243009 0 1 0
6038 1 0.306027 0.141907 0.172031 1 0 0
927 1 0.318129 0.228432 0.214336 0 0 0
4111 1 0.329607 0.0535592 0.177112 0 0 0
2112 1 0.2865 0.00844691 0.236053 0 0 0
2100 1 0.253741 0.250278 0.175329 0 0 0
211 1 0.017342 0.181294 0.257411 0 0 0
3531 1 0.112783 0.0860069 0.286486 0 1 0
2379 1 0.138579 0.101831 0.323 0 0 0
2183 1 0.171373 0.00238135 0.324704 0 0 0
7525 1 0.136217 0.164793 0.319548 1 1 0
228 1 0.224258 0.232131 0.300318 0 0 0
6906 1 0.0502602 0.00617778 0.251317 1 1 0
6004 1 0.00445553 0.00449297 0.27824 1 0 0
914 1 0.176432 0.0112395 0.290264 0 0 0
219 1 0.155542 0.229168 0.267372 0 0 0
5116 1 0.156815 0.059638 0.305202 1 1 0
3376 1 0.138741 0.297872 0.262727 0 1 1
4214 1 0.108201 0.0287561 0.273082 0 0 0
1602 1 0.082283 0.264566 0.265335 0 1 0
6320 1 0.0255957 0.188482 0.292926 1 0 0
2905 1 0.0980263 0.278908 0.307859 0 0 0
6351 1 0.201044 0.127851 0.260103 1 0 0
2247 1 0.0472057 0.0621069 0.266862 0 0 0
165 1 0.0306505 0.118221 0.292542 0 0 0
6144 1 0.161103 0.185797 0.292425 1 0 0
1953 1 0.0813477 0.195153 0.270884 0 1 1
2826 1 0.0383797 0.260753 0.293426 0 0 0
127 1 0.0459912 0.0424163 0.32928 0 0 0
227 1 0.200453 0.288332 0.26698 0 0 0
3664 1 0.206851 0.174974 0.317327 0 1 0
1538 1 0.167758 0.116933 0.291155 0 1 0
3535 1 0.147005 0.157583 0.266011 1 1 0
3670 1 0.103634 0.0290587 0.309242 0 1 0
1526 1 0.0922328 0.2164 0.300708 0 1 0
2341 1 0.0787162 0.0968773 0.314463 0 0 0
995 1 0.162702 0.268696 0.289777 0 0 0
1483 1 0.0915523 0.145566 0.296623 0 1 0
3682 1 0.159512 0.236154 0.31582 0 1 0
2886 1 0.162875 0.0690282 0.265803 0 0 0
189 1 0.212882 0.183769 0.276186 0 0 0
2296 1 0.0488161 0.311728 0.326149 0 0 0
4259 1 0.0877135 0.124082 0.266522 0 0 0
242 1 0.218067 0.302517 0.31031 0 0 0
2196 1 0.102543 0.220978 0.33252 1 0 0
7694 1 0.0346277 0.239234 0.318021 1 1 0
2320 1 0.228249 0.110444 0.307434 0 0 0
6875 1 0.0566341 0.168278 0.322535 1 1 0
5063 1 0.0068131 0.301529 0.259687 1 0 0
2142 1 0.0520168 0.0557909 0.295795 0 0 0
1658 1 0.217718 0.0711896 0.28203 0 1 0
1670 1 0.220757 0.0379753 0.30911 0 1 0
6192 1 0.0109238 0.11848 0.262844 1 0 0
197 1 0.00975639 0.0892084 0.316658 0 0 0
913 1 0.0780313 0.320615 0.280512 0 0 0
965 1 0.231417 0.235141 0.262423 0 0 0
313 1 0.152583 0.304408 0.317729 0 0 0
2171 1 0.22671 0.0543328 0.25101 0 0 0
52 1 0.228607 0.00960896 0.272077 0 0 0
1667 1 0.228717 0.245633 0.331916 0 1 0
834 1 0.138778 0.329532 0.291307 0 0 0
1655 1 0.19009 0.0679795 0.332605 0 1 0
871 1 0.0617162 0.331196 0.25041 0 0 0
878 1 0.0532394 0.169281 0.356088 0 0 0
270 1 0.0764919 0.0550082 0.368788 0 0 0
4323 1 0.197095 0.017105 0.355795 0 0 0
1601 1 0.127291 0.0462362 0.338478 0 1 0
415 1 0.183863 0.322725 0.344684 0 0 0
220 1 0.105828 0.19952 0.364958 0 0 0
6211 1 0.118125 0.322749 0.373055 1 0 0
3605 1 0.0551165 0.104838 0.350557 0 1 0
2887 1 0.179335 0.137675 0.339829 0 0 0
1666 1 0.149271 0.150506 0.365761 0 1 0
6265 1 0.00664366 0.277929 0.348907 1 0 0
4242 1 0.145533 0.266825 0.346948 0 0 0
921 1 0.104916 0.138609 0.344027 0 0 0
4348 1 0.0542892 0.31124 0.371987 1 0 0
3532 1 0.137566 0.0901399 0.364706 0 1 0
4341 1 0.209202 0.179773 0.371056 1 0 0
188 1 0.0985271 0.325003 0.345891 0 0 0
2951 1 0.234959 0.32476 0.365227 0 0 0
3632 1 0.205609 0.109911 0.368041 0 1 0
5130 1 0.240276 0.144456 0.343215 0 1 0
1633 1 0.0152282 0.219218 0.346034 0 1 0
2252 1 0.200396 0.252581 0.359002 0 0 0
2284 1 0.0760045 0.261954 0.352322 0 0 0
2283 1 0.163381 0.201314 0.343079 0 0 0
7000 1 0.117168 0.0113525 0.37094 1 1 0
1155 1 0.237046 0.0452628 0.374258 0 1 0
2311 1 0.310803 0.305893 0.29529 0 0 0
4783 1 0.265623 0.175715 0.261598 0 0 0
115 1 0.279418 0.0662263 0.303098 0 0 0
3058 1 0.33084 0.0821123 0.276073 0 0 0
210 1 0.316147 0.0712631 0.327415 0 0 0
6382 1 0.325368 0.156592 0.275134 0 0 0
4236 1 0.275456 0.11025 0.27314 0 0 0
4136 1 0.276894 0.201068 0.323267 0 0 0
5458 1 0.325523 0.110461 0.302621 0 1 0
7647 1 0.286506 0.136896 0.322897 1 1 0
4288 1 0.327209 0.180993 0.308882 0 0 0
4269 1 0.285434 0.265401 0.315664 0 0 0
263 1 0.303341 0.228688 0.251887 0 0 0
226 1 0.261526 0.158908 0.296966 0 0 0
4060 1 0.304671 0.302319 0.265408 0 0 0
4835 1 0.292575 0.216465 0.288546 0 0 0
2471 1 0.283017 0.0397829 0.269335 0 0 0
109 1 0.258084 0.279393 0.286257 0 0 0
3029 1 0.325946 0.216286 0.365104 0 0 0
2981 1 0.298763 0.269286 0.351692 0 0 0
999 1 0.25433 0.270703 0.373584 0 0 0
922 1 0.313613 0.169896 0.347137 0 0 0
5664 1 0.2706 0.151774 0.369453 0 1 0
1677 1 0.277377 0.0196593 0.338045 0 1 0
2308 1 0.312606 0.32938 0.363073 0 0 0
2186 1 0.308336 0.0437391 0.364852 0 0 0
7544 1 0.315604 0.10546 0.352969 0 1 0
2278 1 0.251792 0.0803353 0.349936 0 0 0
4074 1 0.260115 0.211254 0.353447 0 0 0
2893 1 0.253688 0.317901 0.333448 0 0 0
3123 1 0.149904 0.254004 0.444737 0 0 0
7670 1 0.0587208 0.180309 0.455565 1 1 0
2300 1 0.0407206 0.233707 0.376654 0 0 0
2345 1 0.0433705 0.309216 0.414335 0 0 0
1049 1 0.0979489 0.216417 0.402327 0 0 0
7658 1 0.0689536 0.0127271 0.395925 1 1 0
3742 1 0.0112858 0.161787 0.438054 0 1 0
1057 1 0.131957 0.263115 0.376745 0 0 0
3018 1 0.172589 0.327803 0.427847 0 0 0
7643 1 0.104947 0.318436 0.42361 1 1 0
7570 1 0.0962894 0.121442 0.376442 1 1 0
5743 1 0.0391641 0.24364 0.408554 0 1 0
975 1 0.181612 0.29572 0.377751 0 0 0
452 1 0.166076 0.192036 0.469562 0 0 0
3665 1 0.0204553 0.129958 0.375243 0 1 0
6244 1 0.0556416 0.320503 0.449821 1 0 0
6460 1 0.0988028 0.198756 0.477312 1 0 0
2962 1 0.179162 0.211564 0.41769 0 0 0
6299 1 0.0128283 0.278173 0.470374 1 0 0
6284 1 0.110733 0.117749 0.432232 1 0 0
2314 1 0.129895 0.256178 0.474078 0 0 0
4556 1 0.225444 0.0378544 0.450191 0 0 0
1712 1 0.00819459 0.1673 0.403333 0 1 0
7695 1 0.0525072 0.0752821 0.396253 1 1 0
1096 1 0.0909342 0.286028 0.396318 0 0 0
233 1 0.211653 0.0419926 0.48232 0 0 0
185 1 0.173768 0.0195599 0.415535 0 0 0
938 1 0.0811364 0.136925 0.40853 0 1 0
310 1 0.227537 0.313539 0.481763 0 0 0
306 1 0.187316 0.309383 0.459263 0 0 0
3117 1 0.114083 0.307162 0.456371 0 0 0
4208 1 0.125741 0.173428 0.415773 1 0 0
6415 1 0.0106475 0.179762 0.488833 1 0 0
178 1 0.164172 0.133972 0.394067 0 0 0
6391 1 0.0686891 0.244226 0.458038 1 0 0
1701 1 0.172244 0.111579 0.450055 0 0 0
982 1 0.1518 0.0794875 0.481642 0 0 0
3660 1 0.156219 0.274043 0.410981 0 1 0
3666 1 0.136307 0.142877 0.486353 0 1 0
2141 1 0.0530981 0.0514037 0.478846 0 0 0
7701 1 0.246492 0.0395345 0.42069 1 1 0
326 1 0.130573 0.0169148 0.463976 0 0 0
7591 1 0.00608407 0.283841 0.388088 1 1 0
431 1 0.173556 0.0395804 0.382342 0 0 0
3756 1 0.155108 0.198769 0.384139 0 1 0
7161 1 0.0709536 0.297832 0.479557 1 0 0
279 1 0.218515 0.274741 0.428427 0 0 0
4416 1 0.0206867 0.27203 0.436046 1 0 0
7635 1 0.044285 0.115998 0.457627 1 1 0
2397 1 0.208364 0.203157 0.49111 0 0 0
4415 1 0.21806 0.0876811 0.432658 0 0 0
371 1 0.0727994 0.11992 0.486023 0 0 0
932 1 0.236162 0.153056 0.397341 0 0 0
7649 1 0.199215 0.179679 0.443414 1 1 0
1084 1 0.116588 0.0706812 0.396518 0 1 0
409 1 0.239231 0.109893 0.460682 0 0 0
5692 1 0.0352245 0.0907164 0.428529 0 1 0
3026 1 0.0649747 0.190055 0.42207 0 0 0
2398 1 0.212283 0.0855242 0.398106 0 0 0
7079 1 0.146929 0.32005 0.485724 1 0 0
2162 1 0.206897 0.234751 0.394247 0 0 0
217 1 0.061228 0.178558 0.386206 0 0 0
5082 1 0.159178 0.0464415 0.442231 0 1 0
438 1 0.0922261 0.263648 0.429488 0 0 0
305 1 0.10723 0.0771767 0.454955 0 0 0
4264 1 0.221025 0.306294 0.40157 0 0 0
7177 1 0.202418 0.238522 0.465678 1 0 0
3725 1 0.209728 0.13509 0.482764 0 1 0
4351 1 0.126799 0.182541 0.444956 0 0 0
2431 1 0.19008 0.140994 0.420338 0 0 0
5579 1 0.159456 0.0854735 0.418898 1 1 0
3845 1 0.103826 0.138755 0.461791 0 1 0
6412 1 0.0986677 0.0494532 0.426287 1 0 0
2522 1 0.187052 0.261775 0.492373 0 0 0
401 1 0.0550453 0.234851 0.489854 0 0 0
2363 1 0.141841 0.0141622 0.493688 0 0 0
2294 1 0.00502999 0.214025 0.458607 0 0 0
3063 1 0.0214016 0.0288243 0.413455 0 0 0
7577 1 0.0493175 0.0361372 0.450409 1 1 0
2419 1 0.242062 0.173793 0.464107 0 0 0
2287 1 0.249387 0.221701 0.442926 0 0 0
3228 1 0.249002 0.143616 0.430284 0 0 0
6378 1 0.246051 0.0795356 0.499223 1 0 0
1023 1 0.00361376 0.308924 0.495561 0 0 0
2503 1 0.275041 0.135831 0.488506 0 0 0
276 1 0.328412 0.157443 0.380154 0 0 0
950 1 0.3153 0.188406 0.444932 0 0 0
4364 1 0.260038 0.255168 0.494151 0 0 0
421 1 0.306631 0.255786 0.447405 0 0 0
889 1 0.275092 0.0996321 0.412079 0 0 0
470 1 0.269055 0.266506 0.404226 0 0 0
287 1 0.274548 0.0606948 0.473127 0 0 0
2922 1 0.258253 0.199527 0.413912 0 0 0
2289 1 0.325272 0.0439307 0.421898 0 0 0
1189 1 0.320835 0.057756 0.498264 0 1 0
2324 1 0.283538 0.0794614 0.441605 0 0 0
309 1 0.321708 0.232747 0.418484 0 0 0
3086 1 0.282611 0.222413 0.469099 0 0 0
5557 1 0.300867 0.0137871 0.44564 0 1 0
471 1 0.288572 0.330008 0.39471 0 0 0
5184 1 0.296654 0.143344 0.46121 0 0 0
7754 1 0.275529 0.191961 0.497346 1 1 0
3027 1 0.280517 0.221278 0.384918 0 0 0
2451 1 0.319608 0.131984 0.431518 0 0 0
190 1 0.293638 0.0445723 0.39377 0 0 0
1663 1 0.268079 0.0992526 0.381981 0 1 0
1100 1 0.314369 0.300809 0.4244 0 0 0
340 1 0.255245 0.287364 0.456315 0 0 0
7774 1 0.314548 0.28035 0.479173 1 1 0
3007 1 0.313545 0.166774 0.406928 0 0 0
880 1 0.329882 0.0971899 0.396362 0 0 0
3722 1 0.327049 0.276433 0.381638 0 0 0
2346 1 0.267879 0.00254768 0.485681 0 0 0
3879 1 0.32991 0.230718 0.497268 0 1 0
2464 1 0.167227 0.123596 0.607157 0 0 0
410 1 0.00367217 0.201922 0.589071 0 0 0
4559 1 0.0542781 0.247874 0.544911 1 0 0
490 1 0.10305 0.215991 0.622234 0 0 0
7951 1 0.0997305 0.119966 0.586936 1 1 0
4980 1 0.0335269 0.0228909 0.603595 1 1 0
423 1 0.169417 0.20686 0.619006 0 0 0
1636 1 0.234992 0.205547 0.519649 0 1 0
7629 1 0.122981 0.0604262 0.590505 1 1 0
6374 1 0.011396 0.165002 0.543826 1 0 0
7145 1 0.0487547 0.165526 0.565417 1 0 0
1013 1 0.10153 0.00276585 0.567364 0 1 0
1801 1 0.141397 0.182 0.535321 0 1 0
2395 1 0.182516 0.05105 0.608532 0 0 0
7054 1 0.0167266 0.324161 0.527264 1 0 0
2393 1 0.0541476 0.0705399 0.582982 0 0 0
3734 1 0.229363 0.284368 0.604229 0 0 0
271 1 0.117738 0.27337 0.501941 0 0 0
463 1 0.0415701 0.272748 0.513987 0 0 0
4505 1 0.0903222 0.0873064 0.533451 0 0 0
497 1 0.165359 0.0143826 0.581666 0 0 0
7100 1 0.0129437 0.304349 0.560384 1 0 0
327 1 0.0992151 0.0147582 0.608684 0 0 0
516 1 0.0985908 0.233496 0.568944 0 0 0
486 1 0.0893142 0.131608 0.616824 0 0 0
2480 1 0.132496 0.0652374 0.559201 0 0 0
3774 1 0.19375 0.29716 0.548869 0 0 0
1071 1 0.123437 0.320878 0.591325 0 0 0
347 1 0.0319264 0.257212 0.614367 0 0 0
257 1 0.108464 0.0730721 0.505696 0 0 0
5148 1 0.0178263 0.184248 0.616563 1 1 0
6357 1 0.205123 0.162699 0.542747 1 0 0
1725 1 0.180163 0.163034 0.508994 0 1 0
366 1 0.241974 0.1458 0.512064 0 0 0
4499 1 0.0697436 0.197496 0.592687 1 0 0
2374 1 0.0928225 0.327342 0.532772 0 0 0
4527 1 0.0151068 0.120422 0.623792 1 0 0
6281 1 0.0630956 0.110371 0.558492 1 0 0
7025 1 0.0918106 0.265184 0.599699 1 0 0
6499 1 0.157047 0.305255 0.52234 1 0 0
478 1 0.154545 0.0518831 0.528686 0 0 0
7137 1 0.0542458 0.311585 0.613682 1 0 0
386 1 0.0780684 0.0161394 0.531613 0 0 0
425 1 0.195966 0.0631961 0.555721 0 0 0
397 1 0.0603222 0.0721349 0.618017 0 0 0
4448 1 0.125757 0.264128 0.537359 1 0 0
4646 1 0.23141 0.164142 0.605217 1 0 0
7589 1 0.0378968 0.117521 0.511323 1 1 0
572 1 0.0187505 0.0794243 0.539661 0 0 0
5666 1 0.184724 0.178581 0.57389 1 1 0
6475 1 0.0903003 0.228107 0.520196 1 0 0
7835 1 0.121955 0.131193 0.516301 1 1 0
6404 1 0.13203 0.152611 0.562883 1 0 0
2302 1 0.203546 0.0229504 0.51047 0 0 0
1204 1 0.224581 0.0789593 0.528861 0 0 0
3677 1 0.164567 0.232603 0.556247 0 1 0
6438 1 0.245103 0.0204659 0.536927 1 0 0
3227 1 0.231128 0.221867 0.618353 0 0 0
6447 1 0.215496 0.229672 0.587128 1 0 0
7725 1 0.186002 0.096182 0.504337 1 1 0
467 1 0.180792 0.243816 0.521829 0 0 0
6340 1 0.146154 0.231197 0.587105 1 0 0
503 1 0.121229 0.0782123 0.61992 0 0 0
1202 1 0.0754905 0.165586 0.534404 0 0 0
7068 1 0.172852 0.115884 0.535667 1 0 0
337 1 0.037133 0.250902 0.580272 0 0 0
1753 1 0.0421726 0.0369584 0.559756 0 1 0
3164 1 0.182178 0.278414 0.578504 0 0 0
3197 1 0.223737 0.290187 0.518166 0 0 0
2470 1 0.230972 0.241902 0.550428 0 0 0
536 1 0.216738 0.0543319 0.581688 0 0 0
2423 1 0.0699186 0.304442 0.575797 0 0 0
1686 1 0.124373 0.308217 0.560816 0 1 0
1842 1 0.1648 0.00662524 0.550005 0 1 0
2526 1 0.131675 0.17316 0.593813 0 0 0
367 1 0.245239 0.293786 0.574288 0 0 0
5687 1 0.164938 0.108323 0.579005 1 1 0
4542 1 0.160639 0.276081 0.610243 1 0 0
4485 1 0.225333 0.0943958 0.60877 0 0 0
4420 1 0.00929569 0.212502 0.517062 1 0 0
7069 1 0.00524093 0.292029 0.594314 1 0 0
7712 1 0.0184001 0.0094489 0.531989 1 1 0
6379 1 0.0274819 0.0512028 0.50719 1 0 0
2418 1 0.0355478 0.139444 0.595434 0 0 0
2467 1 0.232836 0.124433 0.581211 0 0 0
2489 1 0.191052 0.329407 0.597573 0 0 0
382 1 0.146267 0.214283 0.500553 0 0 0
4472 1 0.0782029 0.175795 0.503897 0 0 0
6575 1 0.22927 0.00067168 0.603205 1 0 0
7727 1 0.0779558 0.00963845 0.501371 1 1 0
3214 1 0.000230487 0.23101 0.554249 0 0 0
1862 1 0.146064 0.331382 0.62155 0 0 0
4434 1 0.329456 0.11937 0.624911 0 0 0
3754 1 0.286979 0.179675 0.62427 0 1 0
2360 1 0.322571 0.284525 0.580818 0 0 0
5853 1 0.274008 0.131471 0.535332 0 1 0
6440 1 0.29223 0.129668 0.601857 1 0 0
1125 1 0.283949 0.288309 0.541766 0 0 0
3140 1 0.321086 0.328083 0.525885 0 0 0
7752 1 0.278195 0.0710852 0.5832 1 1 0
3267 1 0.294292 0.305517 0.604088 0 0 0
5821 1 0.281432 0.0255609 0.56235 0 1 0
3741 1 0.281638 0.243578 0.569738 0 1 0
5052 1 0.333148 0.00427617 0.541413 0 0 0
5004 1 0.281717 0.313706 0.501384 0 0 0
6328 1 0.262347 0.186513 0.576294 1 0 0
5350 1 0.294484 0.0128839 0.595007 0 0 0
4597 1 0.277548 0.0634355 0.614274 0 0 0
4372 1 0.269867 0.188511 0.545894 0 0 0
1037 1 0.291757 0.236423 0.523633 0 0 0
357 1 0.294436 0.140016 0.561577 0 0 0
6400 1 0.309186 0.173777 0.522593 1 0 0
4501 1 0.331012 0.181245 0.598086 0 0 0
2402 1 0.328304 0.0783114 0.55284 0 0 0
5044 1 0.293127 0.0599315 0.528373 0 1 0
2691 1 0.291517 0.242325 0.602618 0 0 0
1804 1 0.316924 0.114484 0.510834 0 1 0
3910 1 0.259938 0.0848678 0.554104 0 1 0
6300 1 0.182991 0.306848 0.662284 1 0 0
3893 1 0.22049 0.0302732 0.634419 0 1 0
1717 1 0.137982 0.148086 0.638619 0 1 0
1784 1 0.102169 0.286046 0.632311 0 1 0
7798 1 0.0386864 0.305287 0.645249 1 1 0
1132 1 0.107098 0.213524 0.652308 0 0 0
3125 1 0.0633415 0.0242705 0.634589 0 0 0
3991 1 0.185235 0.0985094 0.634685 0 1 0
1183 1 0.246968 0.22608 0.647615 0 0 0
2498 1 0.152299 0.252395 0.638509 0 0 0
568 1 0.00121062 0.0460881 0.63168 0 0 0
5055 1 0.157505 0.0422812 0.640259 0 0 0
414 1 0.122707 0.33194 0.653983 0 0 0
7067 1 0.0939287 0.0453024 0.658673 1 1 0
505 1 0.181092 0.203001 0.649954 0 0 0
1249 1 0.147141 0.0814257 0.665676 0 0 0
444 1 0.208028 0.161591 0.631538 0 0 0
3874 1 0.0349902 0.0886774 0.6461 0 1 0
5163 1 0.0565287 0.233528 0.640487 0 0 0
5180 1 0.0632066 0.154848 0.645177 1 0 0
1185 1 0.204492 0.281882 0.633446 0 0 0
1790 1 0.206045 0.0724232 0.659932 0 1 0
416 1 0.192566 0.141774 0.6605 0 0 0
2581 1 0.0329231 0.203981 0.663567 0 0 0
462 1 0.0984781 0.270027 0.666555 0 0 0
5983 1 0.114451 0.0833186 0.691679 0 1 0
3307 1 0.198548 0.256384 0.678197 0 0 0
2582 1 0.16734 0.042654 0.748574 0 0 0
4438 1 0.0946425 0.131028 0.670447 0 0 0
3242 1 0.157908 0.186809 0.738818 0 0 0
510 1 0.0371685 0.269872 0.672835 0 0 0
7753 1 0.0292464 0.130151 0.681678 1 1 0
2584 1 0.178907 0.00438028 0.725897 0 0 0
1949 1 0.00323106 0.0039685 0.717936 0 1 0
1068 1 0.246372 0.140724 0.694525 0 0 0
2586 1 0.0477875 0.269303 0.724114 0 0 0
2609 1 0.0727938 0.131168 0.704111 0 0 0
6414 1 0.00282905 0.227243 0.729188 1 0 0
1310 1 0.152934 0.317874 0.739396 0 0 0
1179 1 0.0342705 0.316208 0.742984 0 0 0
2435 1 0.079511 0.285275 0.694051 0 0 0
3129 1 0.183627 0.225274 0.711147 0 0 0
3120 1 0.119451 0.0244791 0.710435 0 0 0
1157 1 0.0635307 0.0467599 0.707629 0 0 0
618 1 0.164869 0.121323 0.688725 0 0 0
461 1 0.200828 0.285791 0.72325 0 0 0
1860 1 0.183575 0.149711 0.717657 0 0 0
7158 1 0.130656 0.108435 0.720587 1 0 0
2461 1 0.14983 0.00575992 0.669311 0 0 0
1236 1 0.2271 0.207421 0.742272 0 0 0
451 1 0.131206 0.175925 0.703453 0 0 0
554 1 0.227504 0.0401388 0.737082 0 0 0
1237 1 0.0213532 0.0102521 0.68422 0 1 0
446 1 0.129392 0.330607 0.682893 0 0 0
1140 1 0.0124888 0.174422 0.704853 0 0 0
3159 1 0.157018 0.286473 0.703917 0 0 0
5723 1 0.220687 0.0735804 0.689917 0 1 0
3862 1 0.0852521 0.188066 0.725481 0 1 0
7211 1 0.241215 0.0967866 0.721865 1 0 0
6381 1 0.0111492 0.121037 0.717052 1 0 0
1117 1 0.0586424 0.330639 0.677157 0 0 0
6500 1 0.244413 0.146259 0.741702 1 0 0
6364 1 0.165909 0.257228 0.743842 1 0 0
6471 1 0.0961842 0.0536195 0.737235 1 0 0
2501 1 0.0479232 0.228546 0.700012 0 0 0
2546 1 0.108483 0.243123 0.710597 0 0 0
4333 1 0.203156 0.313987 0.690336 0 0 0
1819 1 0.0342998 0.178428 0.742742 0 1 0
7335 1 0.0663866 0.108784 0.735394 1 0 0
7229 1 0.181532 0.071568 0.715856 1 0 0
5065 1 0.119043 0.138276 0.747453 1 0 0
436 1 0.141165 0.170952 0.671205 0 0 0
5223 1 0.138578 0.227958 0.684185 0 0 0
1205 1 0.0111837 0.0624663 0.734224 0 0 0
7065 1 0.0743645 0.182261 0.683315 1 0 0
3306 1 0.23762 0.264013 0.704157 0 0 0
7090 1 0.0988462 0.265823 0.746432 1 0 0
3175 1 0.196888 0.104146 0.742341 0 0 0
7848 1 0.0509064 0.00342464 0.745989 1 1 0
5209 1 0.104866 0.306134 0.721205 0 0 0
6534 1 0.200145 0.179186 0.687498 1 0 0
1803 1 0.185064 0.0219298 0.694149 0 1 0
422 1 0.0425269 0.06846 0.677824 0 0 0
5874 1 0.240845 0.00772205 0.708619 0 1 0
915 1 0.221739 0.0172555 0.666693 0 0 0
5156 1 0.306448 0.00684559 0.660848 0 0 0
1166 1 0.312694 0.246958 0.656345 0 0 0
3298 1 0.333045 0.0575114 0.632675 0 0 0
5017 1 0.286771 0.173609 0.653175 0 0 0
5322 1 0.313053 0.100208 0.652059 0 0 0
5818 1 0.262079 0.121266 0.630918 0 1 0
3198 1 0.282981 0.271662 0.63063 0 0 0
3240 1 0.251773 0.280185 0.658614 0 0 0
4604 1 0.264989 0.0575588 0.650382 0 0 0
1968 1 0.28548 0.00742025 0.629669 0 1 0
1085 1 0.258045 0.329676 0.637745 0 0 0
1024 1 0.305483 0.318983 0.657004 -1 0 0
2508 1 0.293773 0.132969 0.72058 0 0 0
3876 1 0.300803 0.00824781 0.731064 0 1 0
2504 1 0.325444 0.0668628 0.738791 0 0 0
3157 1 0.305231 0.112752 0.684487 0 0 0
3142 1 0.315479 0.292417 0.72196 0 0 0
7173 1 0.280755 0.0508187 0.682872 1 0 0
1201 1 0.322109 0.230771 0.707034 0 0 0
2555 1 0.299868 0.172846 0.698891 0 0 0
1181 1 0.267461 0.324645 0.703863 0 0 0
581 1 0.286173 0.053603 0.710621 0 0 0
2466 1 0.252113 0.217239 0.681095 0 0 0
5348 1 0.273324 0.249944 0.731543 0 0 0
1247 1 0.294141 0.283319 0.688169 0 0 0
2664 1 0.323519 0.189929 0.730057 0 0 0
5278 1 0.278565 0.308487 0.749984 0 0 0
370 1 0.250346 0.188371 0.71779 0 0 0
518 1 0.25468 0.125653 0.666868 0 0 0
1238 1 0.049927 0.0618781 0.760201 0 0 0
2492 1 0.222549 0.0243872 0.805936 0 0 0
1267 1 0.181232 0.257295 0.82001 0 0 0
5399 1 0.17496 0.201602 0.83132 0 0 0
7915 1 0.112655 0.0132973 0.767361 1 1 0
5303 1 0.0909174 0.185579 0.75941 0 0 0
2636 1 0.139574 0.22352 0.798078 0 0 0
639 1 0.013739 0.296886 0.772466 0 0 0
3473 1 0.0960907 0.270669 0.804561 0 1 -1
3268 1 0.0352374 0.299745 0.801789 0 0 0
3350 1 0.197305 0.154462 0.792934 0 0 0
677 1 0.0646179 0.128241 0.795354 0 0 0
3943 1 0.167632 0.0344698 0.785921 0 1 0
567 1 0.181015 0.128237 0.820995 0 0 0
6029 1 0.146621 0.224253 0.769084 1 0 -1
2596 1 0.145186 0.095934 0.793339 0 0 0
19 1 0.22026 0.210956 0.774401 0 0 -1
6573 1 0.0796695 0.0695619 0.788673 1 0 0
574 1 0.0814569 0.203193 0.80265 0 0 0
2543 1 0.0270006 0.206713 0.818275 0 0 0
1967 1 0.127118 0.155511 0.815556 0 1 0
7891 1 0.124794 0.00297783 0.831987 1 1 0
483 1 0.194717 0.270972 0.778501 0 0 0
4457 1 0.0514328 0.137177 0.766012 1 0 0
1906 1 0.2213 0.201786 0.810039 0 1 0
4619 1 0.120061 0.0795085 0.765279 0 0 0
7665 1 0.220903 0.0900779 0.7972 1 1 0
2484 1 0.161962 0.059575 0.817363 0 0 0
5388 1 0.0216557 0.241978 0.794015 0 0 0
1186 1 0.192098 0.080852 0.770232 0 1 0
1283 1 0.0214907 0.101629 0.819423 0 0 0
762 1 0.215982 0.320302 0.807089 0 0 -1
3317 1 0.2482 0.256386 0.79548 0 0 0
2514 1 0.109013 0.233844 0.827467 0 0 0
1164 1 0.123875 0.288575 0.775345 0 0 0
3319 1 0.21928 0.0157789 0.765746 0 0 0
2002 1 0.226388 0.073813 0.829838 0 0 -1
1264 1 0.115164 0.0271917 0.805283 0 0 0
419 1 0.0396496 0.193621 0.775116 0 0 0
1299 1 0.221341 0.299797 0.753852 0 0 0
41 1 0.188431 0.00968541 0.8317 0 0 -1
5343 1 0.185197 0.154542 0.763362 0 0 0
3872 1 0.0931883 0.0945151 0.818179 0 1 0
434 1 0.153674 0.303729 0.801858 0 0 0
3283 1 0.0721118 0.256802 0.777916 0 0 0
5872 1 0.12505 0.14687 0.777947 0 1 0
1382 1 0.012193 0.163198 0.799317 0 0 0
1954 1 0.122988 0.310283 0.827391 0 1 0
2699 1 0.034348 0.270829 0.827499 0 0 0
1785 1 0.0416574 0.245485 0.753092 0 1 0
1775 1 0.056022 0.0397221 0.821553 0 1 0
4571 1 0.244376 0.142483 0.772628 0 0 0
6497 1 0.0738109 0.316147 0.77016 1 0 0
1226 1 0.0184184 0.0566583 0.797366 0 0 0
412 1 0.069853 0.169507 0.829301 0 0 0
487 1 0.239351 0.319292 0.779676 0 0 0
2553 1 0.119884 0.0383653 0.860268 0 0 0